LAMMPS Description

     6464  atoms
     4672  bonds
     4032  angles
     2880  dihedrals
     0  impropers

     931  atom types
     380  bond types
     1018  angle types
     804  dihedral types
     6  improper types

  0.0 40.50 xlo xhi
  0.0 40.50 ylo yhi
  0.0 40.50 zlo zhi

Masses

1 15.9994  # O
2 1.008  # H
3 18.998  # 1
4 14.027  # 2
5 12.011  # 3
6 15.999  # 4
7 15.999  # 5
8 15.035  # 6
9 1.008  # 7
10 16.043  # 8
11 15.035  # 9
12 15.035  # 10
13 15.035  # 11
14 15.035  # 12
15 14.027  # 13
16 14.027  # 14
17 13.019  # 15
18 13.019  # 16
19 13.019  # 17
20 12.011  # 18
21 12.011  # 19
22 15.999  # 20
23 1.008  # 21
24 15.035  # 22
25 14.027  # 23
26 32.06  # 24
27 32.06  # 25
28 32.06  # 26
29 32.06  # 27
30 1.008  # 28
31 1.008  # 29
32 15.035  # 30
33 14.027  # 31
34 15.035  # 32
35 14.027  # 33
36 15.035  # 34
37 14.027  # 35
38 14.007  # 36
39 12.011  # 37
40 15.035  # 38
41 13.019  # 39
42 12.011  # 40
43 15.999  # 41
44 15.035  # 42
45 14.027  # 43
46 14.027  # 44
47 35.453  # 45
48 12.011  # 46
49 35.453  # 47
50 12.011  # 48
51 35.453  # 49
52 32.06  # 50
53 15.999  # 51
54 15.035  # 52
55 15.999  # 53
56 14.007  # 54
57 12.011  # 55
58 15.035  # 56
59 1.0  # 57
60 4.003  # 58
61 20.179  # 59
62 39.948  # 60
63 83.8  # 61
64 131.3  # 62
65 15.999  # 63
66 1.008  # 64
67 15.999  # 65
68 1.008  # 66
69 1e-30  # 67
70 15.999  # 68
71 1.008  # 69
72 15.999  # 70
73 1.008  # 71
74 1e-30  # 72
75 15.999  # 73
76 1.008  # 74
77 1e-30  # 75
78 15.999  # 76
79 1.008  # 77
80 14.007  # 78
81 1.008  # 79
82 12.011  # 80
83 12.011  # 81
84 12.011  # 82
85 12.011  # 83
86 12.011  # 84
87 1.008  # 85
88 12.011  # 86
89 12.011  # 87
90 12.011  # 88
91 1.008  # 89
92 12.011  # 90
93 1.008  # 91
94 12.011  # 92
95 12.011  # 93
96 12.011  # 94
97 12.011  # 95
98 15.999  # 96
99 1.008  # 97
100 1.008  # 98
101 12.011  # 99
102 12.011  # 100
103 12.011  # 101
104 12.011  # 102
105 12.011  # 103
106 15.999  # 104
107 1.008  # 105
108 18.998  # 106
109 1.008  # 107
110 12.011  # 108
111 15.999  # 109
112 1.008  # 110
113 15.999  # 111
114 1.008  # 112
115 15.999  # 113
116 1.008  # 114
117 12.011  # 115
118 12.011  # 116
119 12.011  # 117
120 1.008  # 118
121 15.999  # 119
122 12.011  # 120
123 15.999  # 121
124 15.999  # 122
125 12.011  # 123
126 12.011  # 124
127 12.011  # 125
128 12.011  # 126
129 1.008  # 127
130 15.999  # 128
131 15.999  # 129
132 1.008  # 130
133 12.011  # 131
134 1.008  # 132
135 12.011  # 133
136 1.008  # 134
137 12.011  # 135
138 1.008  # 136
139 12.011  # 137
140 1.008  # 138
141 12.011  # 139
142 12.011  # 140
143 12.011  # 141
144 32.06  # 142
145 32.06  # 143
146 32.06  # 144
147 32.06  # 145
148 1.008  # 146
149 1.008  # 147
150 12.011  # 148
151 12.011  # 149
152 12.011  # 150
153 12.011  # 151
154 12.011  # 152
155 12.011  # 153
156 12.011  # 154
157 12.011  # 155
158 12.011  # 156
159 12.011  # 157
160 12.011  # 158
161 12.011  # 159
162 12.011  # 160
163 12.011  # 161
164 12.011  # 162
165 12.011  # 163
166 32.06  # 164
167 12.011  # 165
168 12.011  # 166
169 12.011  # 167
170 35.453  # 168
171 12.011  # 169
172 12.011  # 170
173 12.011  # 171
174 12.011  # 172
175 12.011  # 173
176 12.011  # 174
177 12.011  # 175
178 12.011  # 176
179 12.011  # 177
180 15.999  # 178
181 14.007  # 179
182 14.007  # 180
183 14.007  # 181
184 1.008  # 182
185 1.008  # 183
186 12.011  # 184
187 12.011  # 185
188 12.011  # 186
189 12.011  # 187
190 12.011  # 188
191 12.011  # 189
192 15.999  # 190
193 14.007  # 191
194 1.008  # 192
195 14.007  # 193
196 12.011  # 194
197 15.999  # 195
198 1.008  # 196
199 1.008  # 197
200 12.011  # 198
201 12.011  # 199
202 12.011  # 200
203 12.011  # 201
204 12.011  # 202
205 12.011  # 203
206 14.007  # 204
207 12.011  # 205
208 35.453  # 206
209 14.007  # 207
210 12.011  # 208
211 12.011  # 209
212 15.999  # 210
213 15.999  # 211
214 1.008  # 212
215 12.011  # 213
216 15.999  # 214
217 12.011  # 215
218 12.011  # 216
219 12.011  # 217
220 12.011  # 218
221 12.011  # 219
222 15.999  # 220
223 1.008  # 221
224 12.011  # 222
225 15.999  # 223
226 1.008  # 224
227 12.011  # 225
228 12.011  # 226
229 12.011  # 227
230 12.011  # 228
231 14.007  # 229
232 14.007  # 230
233 14.007  # 231
234 1.008  # 232
235 1.008  # 233
236 12.011  # 234
237 12.011  # 235
238 12.011  # 236
239 12.011  # 237
240 12.011  # 238
241 12.011  # 239
242 12.011  # 240
243 12.011  # 241
244 12.011  # 242
245 14.007  # 243
246 1.008  # 244
247 12.011  # 245
248 14.007  # 246
249 1.008  # 247
250 12.011  # 248
251 12.011  # 249
252 12.011  # 250
253 12.011  # 251
254 14.007  # 252
255 1.008  # 253
256 14.007  # 254
257 12.011  # 255
258 14.007  # 256
259 1.008  # 257
260 12.011  # 258
261 1.008  # 259
262 12.011  # 260
263 1.008  # 261
264 14.007  # 262
265 12.011  # 263
266 14.007  # 264
267 12.011  # 265
268 12.011  # 266
269 12.011  # 267
270 1.008  # 268
271 15.999  # 269
272 1.008  # 270
273 15.999  # 271
274 1.008  # 272
275 1.008  # 273
276 12.011  # 274
277 1.008  # 275
278 14.007  # 276
279 12.011  # 277
280 14.007  # 278
281 12.011  # 279
282 12.011  # 280
283 12.011  # 281
284 1.008  # 282
285 15.999  # 283
286 14.007  # 284
287 1.008  # 285
288 1.008  # 286
289 1.008  # 287
290 1.008  # 288
291 14.007  # 289
292 12.011  # 290
293 14.007  # 291
294 12.011  # 292
295 12.011  # 293
296 12.011  # 294
297 14.007  # 295
298 12.011  # 296
299 14.007  # 297
300 1.008  # 298
301 14.007  # 299
302 1.008  # 300
303 1.008  # 301
304 1.008  # 302
305 1.008  # 303
306 14.007  # 304
307 12.011  # 305
308 14.007  # 306
309 12.011  # 307
310 12.011  # 308
311 12.011  # 309
312 1.008  # 310
313 14.007  # 311
314 1.008  # 312
315 15.999  # 313
316 12.011  # 314
317 1.008  # 315
318 12.011  # 316
319 1.008  # 317
320 12.011  # 318
321 1.008  # 319
322 14.007  # 320
323 12.011  # 321
324 14.007  # 322
325 12.011  # 323
326 12.011  # 324
327 12.011  # 325
328 1.008  # 326
329 15.999  # 327
330 1.008  # 328
331 14.007  # 329
332 1.008  # 330
333 1.008  # 331
334 1.008  # 332
335 1.008  # 333
336 12.011  # 334
337 1.008  # 335
338 30.974  # 336
339 15.999  # 337
340 15.999  # 338
341 15.035  # 339
342 12.011  # 340
343 35.453  # 341
344 12.011  # 342
345 18.998  # 343
346 35.453  # 344
347 79.904  # 345
348 126.905  # 346
349 18.039  # 347
350 6.941  # 348
351 22.99  # 349
352 39.098  # 350
353 85.468  # 351
354 132.905  # 352
355 24.305  # 353
356 40.08  # 354
357 87.62  # 355
358 137.33  # 356
359 12.011  # 357
360 1.008  # 358
361 32.06  # 359
362 12.011  # 360
363 1.008  # 361
364 15.999  # 362
365 12.011  # 363
366 1.008  # 364
367 12.011  # 365
368 14.007  # 366
369 12.011  # 367
370 1.008  # 368
371 14.007  # 369
372 1.008  # 370
373 12.011  # 371
374 1.008  # 372
375 12.011  # 373
376 1.008  # 374
377 1e-30  # 375
378 15.999  # 376
379 1.008  # 377
380 238.029  # 378
381 15.999  # 379
382 15.999  # 380
383 30.974  # 381
384 15.999  # 382
385 15.999  # 383
386 12.011  # 384
387 1.008  # 385
388 30.974  # 386
389 15.999  # 387
390 15.999  # 388
391 12.011  # 389
392 1.008  # 390
393 30.974  # 391
394 15.999  # 392
395 15.999  # 393
396 12.011  # 394
397 1.008  # 395
398 12.011  # 396
399 1.008  # 397
400 12.011  # 398
401 12.011  # 399
402 1.008  # 400
403 12.011  # 401
404 12.011  # 402
405 1.008  # 403
406 12.011  # 404
407 12.011  # 405
408 12.011  # 406
409 15.999  # 407
410 15.999  # 408
411 12.011  # 409
412 1.008  # 410
413 12.011  # 411
414 12.011  # 412
415 12.011  # 413
416 15.999  # 414
417 32.06  # 415
418 15.999  # 416
419 12.011  # 417
420 1.008  # 418
421 14.007  # 419
422 1.008  # 420
423 14.007  # 421
424 1.008  # 422
425 12.011  # 423
426 1.008  # 424
427 12.011  # 425
428 1.008  # 426
429 12.011  # 427
430 1.008  # 428
431 12.011  # 429
432 12.011  # 430
433 12.011  # 431
434 12.011  # 432
435 12.011  # 433
436 32.06  # 434
437 15.999  # 435
438 32.06  # 436
439 32.06  # 437
440 15.999  # 438
441 12.011  # 439
442 12.011  # 440
443 12.011  # 441
444 12.011  # 442
445 12.011  # 443
446 14.007  # 444
447 1.008  # 445
448 12.011  # 446
449 12.011  # 447
450 12.011  # 448
451 12.011  # 449
452 12.011  # 450
453 12.011  # 451
454 14.007  # 452
455 14.007  # 453
456 1.008  # 454
457 12.011  # 455
458 12.011  # 456
459 12.011  # 457
460 12.011  # 458
461 12.011  # 459
462 12.011  # 460
463 14.007  # 461
464 12.011  # 462
465 12.011  # 463
466 12.011  # 464
467 1.008  # 465
468 1.008  # 466
469 1.008  # 467
470 14.007  # 468
471 12.011  # 469
472 1.008  # 470
473 14.007  # 471
474 12.011  # 472
475 12.011  # 473
476 12.011  # 474
477 1.008  # 475
478 1.008  # 476
479 1.008  # 477
480 14.007  # 478
481 12.011  # 479
482 12.011  # 480
483 1.008  # 481
484 1.008  # 482
485 14.007  # 483
486 12.011  # 484
487 12.011  # 485
488 1.008  # 486
489 1.008  # 487
490 1.008  # 488
491 14.007  # 489
492 14.007  # 490
493 12.011  # 491
494 12.011  # 492
495 12.011  # 493
496 1.008  # 494
497 1.008  # 495
498 1.008  # 496
499 1.008  # 497
500 14.007  # 498
501 12.011  # 499
502 14.007  # 500
503 12.011  # 501
504 12.011  # 502
505 1.008  # 503
506 1.008  # 504
507 1.008  # 505
508 1.008  # 506
509 15.999  # 507
510 12.011  # 508
511 12.011  # 509
512 1.008  # 510
513 1.008  # 511
514 15.999  # 512
515 12.011  # 513
516 14.007  # 514
517 12.011  # 515
518 12.011  # 516
519 1.008  # 517
520 1.008  # 518
521 1.008  # 519
522 15.999  # 520
523 14.007  # 521
524 12.011  # 522
525 12.011  # 523
526 12.011  # 524
527 1.008  # 525
528 1.008  # 526
529 1.008  # 527
530 14.007  # 528
531 12.011  # 529
532 12.011  # 530
533 12.011  # 531
534 12.011  # 532
535 12.011  # 533
536 12.011  # 534
537 12.011  # 535
538 12.011  # 536
539 1.008  # 537
540 1.008  # 538
541 1.008  # 539
542 1.008  # 540
543 1.008  # 541
544 1.008  # 542
545 1.008  # 543
546 14.007  # 544
547 12.011  # 545
548 12.011  # 546
549 12.011  # 547
550 12.011  # 548
551 12.011  # 549
552 12.011  # 550
553 12.011  # 551
554 12.011  # 552
555 12.011  # 553
556 1.008  # 554
557 1.008  # 555
558 1.008  # 556
559 1.008  # 557
560 1.008  # 558
561 1.008  # 559
562 1.008  # 560
563 14.007  # 561
564 12.011  # 562
565 14.007  # 563
566 12.011  # 564
567 12.011  # 565
568 12.011  # 566
569 14.007  # 567
570 12.011  # 568
571 14.007  # 569
572 1.008  # 570
573 1.008  # 571
574 1.008  # 572
575 1.008  # 573
576 32.06  # 574
577 12.011  # 575
578 14.007  # 576
579 12.011  # 577
580 12.011  # 578
581 1.008  # 579
582 1.008  # 580
583 1.008  # 581
584 14.007  # 582
585 12.011  # 583
586 1.008  # 584
587 12.011  # 585
588 12.011  # 586
589 14.007  # 587
590 12.011  # 588
591 12.011  # 589
592 12.011  # 590
593 12.011  # 591
594 12.011  # 592
595 12.011  # 593
596 1.008  # 594
597 1.008  # 595
598 1.008  # 596
599 1.008  # 597
600 14.007  # 598
601 12.011  # 599
602 14.007  # 600
603 12.011  # 601
604 12.011  # 602
605 12.011  # 603
606 1.008  # 604
607 1.008  # 605
608 1.008  # 606
609 1.008  # 607
610 12.011  # 608
611 12.011  # 609
612 12.011  # 610
613 12.011  # 611
614 12.011  # 612
615 12.011  # 613
616 12.011  # 614
617 12.011  # 615
618 12.011  # 616
619 12.011  # 617
620 12.011  # 618
621 12.011  # 619
622 12.011  # 620
623 12.011  # 621
624 12.011  # 622
625 32.06  # 623
626 1.008  # 624
627 12.011  # 625
628 12.011  # 626
629 14.007  # 627
630 12.011  # 628
631 12.011  # 629
632 12.011  # 630
633 12.011  # 631
634 12.011  # 632
635 12.011  # 633
636 12.011  # 634
637 12.011  # 635
638 12.011  # 636
639 32.06  # 637
640 227.0  # 638
641 232.038  # 639
642 243.0  # 640
643 12.011  # 641
644 12.011  # 642
645 1.008  # 643
646 138.906  # 644
647 144.24  # 645
648 151.96  # 646
649 157.25  # 647
650 173.04  # 648
651 12.011  # 649
652 35.453  # 650
653 1.008  # 651
654 12.011  # 652
655 12.011  # 653
656 12.011  # 654
657 12.011  # 655
658 1.008  # 656
659 12.011  # 657
660 1.008  # 658
661 12.011  # 659
662 18.998  # 660
663 12.011  # 661
664 18.998  # 662
665 79.904  # 663
666 14.027  # 664
667 12.011  # 665
668 12.011  # 666
669 18.998  # 667
670 12.011  # 668
671 18.998  # 669
672 12.011  # 670
673 79.904  # 671
674 12.011  # 672
675 126.905  # 673
676 12.011  # 674
677 32.06  # 675
678 12.011  # 676
679 12.011  # 677
680 12.011  # 678
681 12.011  # 679
682 12.011  # 680
683 1.008  # 681
684 1.008  # 682
685 12.011  # 683
686 14.007  # 684
687 1.008  # 685
688 1.008  # 686
689 1.008  # 687
690 12.011  # 688
691 12.011  # 689
692 14.007  # 690
693 14.007  # 691
694 14.007  # 692
695 12.011  # 693
696 14.007  # 694
697 12.011  # 695
698 12.011  # 696
699 12.011  # 697
700 12.011  # 698
701 12.011  # 699
702 1.008  # 700
703 14.007  # 701
704 15.999  # 702
705 12.011  # 703
706 1.008  # 704
707 12.011  # 705
708 12.011  # 706
709 12.011  # 707
710 14.007  # 708
711 12.011  # 709
712 12.011  # 710
713 14.007  # 711
714 15.999  # 712
715 12.011  # 713
716 15.999  # 714
717 12.011  # 715
718 12.011  # 716
719 12.011  # 717
720 1.008  # 718
721 1.008  # 719
722 1.008  # 720
723 15.999  # 721
724 30.974  # 722
725 12.011  # 723
726 12.011  # 724
727 1.008  # 725
728 30.974  # 726
729 18.998  # 727
730 14.007  # 728
731 15.999  # 729
732 14.007  # 730
733 14.007  # 731
734 14.007  # 732
735 12.011  # 733
736 12.011  # 734
737 12.011  # 735
738 12.011  # 736
739 12.011  # 737
740 12.011  # 738
741 1.008  # 739
742 1.008  # 740
743 1.008  # 741
744 12.011  # 742
745 12.011  # 743
746 12.011  # 744
747 12.011  # 745
748 12.011  # 746
749 12.011  # 747
750 12.011  # 748
751 12.011  # 749
752 12.011  # 750
753 12.011  # 751
754 12.011  # 752
755 12.011  # 753
756 12.011  # 754
757 12.011  # 755
758 1.008  # 756
759 12.011  # 757
760 12.011  # 758
761 12.011  # 759
762 1.008  # 760
763 12.011  # 761
764 12.011  # 762
765 12.011  # 763
766 15.999  # 764
767 1.008  # 765
768 14.007  # 766
769 14.007  # 767
770 14.007  # 768
771 12.011  # 769
772 14.007  # 770
773 1.008  # 771
774 12.011  # 772
775 12.011  # 773
776 12.011  # 774
777 12.011  # 775
778 12.011  # 776
779 12.011  # 777
780 12.011  # 778
781 12.011  # 779
782 1.008  # 780
783 12.011  # 781
784 12.011  # 782
785 14.007  # 783
786 15.999  # 784
787 1.008  # 785
788 18.998  # 786
789 12.011  # 787
790 1.008  # 788
791 12.011  # 789
792 12.011  # 790
793 12.011  # 791
794 12.011  # 792
795 12.011  # 793
796 12.011  # 794
797 18.998  # 795
798 12.011  # 796
799 1.008  # 797
800 12.011  # 798
801 12.011  # 799
802 35.453  # 800
803 12.011  # 801
804 1.008  # 802
805 12.011  # 803
806 12.011  # 804
807 79.904  # 805
808 12.011  # 806
809 1.008  # 807
810 12.011  # 808
811 12.011  # 809
812 18.998  # 810
813 35.453  # 811
814 79.904  # 812
815 12.011  # 813
816 15.999  # 814
817 12.011  # 815
818 18.998  # 816
819 14.007  # 817
820 12.011  # 818
821 12.011  # 819
822 12.011  # 820
823 12.011  # 821
824 15.999  # 822
825 14.007  # 823
826 1.008  # 824
827 15.999  # 825
828 1.008  # 826
829 12.011  # 827
830 12.011  # 828
831 12.011  # 829
832 12.011  # 830
833 12.011  # 831
834 12.011  # 832
835 12.011  # 833
836 1e-30  # 834
837 12.011  # 835
838 12.011  # 836
839 12.011  # 837
840 126.905  # 838
841 1.008  # 839
842 14.007  # 840
843 12.011  # 841
844 12.011  # 842
845 14.007  # 843
846 12.011  # 844
847 12.011  # 845
848 15.999  # 846
849 14.007  # 847
850 12.011  # 848
851 12.011  # 849
852 12.011  # 850
853 12.011  # 851
854 1.008  # 852
855 12.011  # 853
856 15.999  # 854
857 1.008  # 855
858 12.011  # 856
859 12.011  # 857
860 12.011  # 858
861 12.011  # 859
862 12.011  # 860
863 12.011  # 861
864 12.011  # 862
865 12.011  # 863
866 12.011  # 864
867 12.011  # 865
868 28.086  # 866
869 28.086  # 867
870 28.086  # 868
871 28.086  # 869
872 1.008  # 870
873 12.011  # 871
874 12.011  # 872
875 12.011  # 873
876 12.011  # 874
877 18.998  # 875
878 35.453  # 876
879 79.904  # 877
880 126.905  # 878
881 6.941  # 879
882 22.99  # 880
883 39.098  # 881
884 85.468  # 882
885 132.905  # 883
886 24.305  # 884
887 40.08  # 885
888 87.62  # 886
889 137.33  # 887
890 12.011  # 888
891 12.011  # 889
892 12.011  # 890
893 12.011  # 891
894 1.008  # 892
895 14.007  # 893
896 12.011  # 894
897 14.007  # 895
898 12.011  # 896
899 12.011  # 897
900 12.011  # 898
901 1.008  # 899
902 12.011  # 900
903 12.011  # 901
904 12.011  # 902
905 12.011  # 903
906 12.011  # 904
907 15.999  # 905
908 12.011  # 906
909 12.011  # 80L_b13_a13_d13L_i13
910 12.011  # 81L_b13_a13_d13L_i13
911 1.008  # 85LCH3_b46_a46_d46_i46
912 1.008  # 85LCH2_b46_a46_d46_i46
913 12.011  # 87L_b47_a47_d47L_i47
914 1.008  # 89L_b46_a46_d46_i46
915 12.011  # 86L_b47_a47_d47L_i47
916 12.011  # 88L_b47_a47_d47L_i47
917 12.011  # 169L_b47_a47_d47L_i47
918 12.011  # 266L_b47_a47_d47L_i47
919 12.011  # 267L_b47_a47_d47L_i47
920 12.011  # 280L_b47_a47_d47L_i47
921 12.011  # 281L_b47_a47_d47L_i47
922 12.011  # 324L_b47_a47_d47L_i47
923 12.011  # 325L_b47_a47_d47L_i47
924 12.011  # 340L_b47_a47_d47L_i47
925 12.011  # 342L_b47_a47_d47L_i47
926 12.011  # 458L_b47_a47_d47L_i47
927 12.011  # 459L_b47_a47_d47L_i47
928 12.011  # 649L_b47_a47_d47L_i47
929 12.011  # 900L_b47_a47_d47L_i47
930 12.011  # 901L_b47_a47_d47L_i47
931 12.011  # 902L_b47_a47_d47L_i47

Atoms  # full

1 1 1 -0.8476 0.0 0.0 0.0
2 1 2 0.4238 0.8164904 0.0 0.577359
3 1 2 0.4238 -0.8164904 0.0 0.577359
4 2 1 -0.8476 3.45 0.0 0.0
5 2 2 0.4238 4.2664904 0.0 0.577359
6 2 2 0.4238 2.6335096 0.0 0.577359
7 3 1 -0.8476 6.9 0.0 0.0
8 3 2 0.4238 7.7164904000000005 0.0 0.577359
9 3 2 0.4238 6.0835096 0.0 0.577359
10 4 1 -0.8476 10.350000000000001 0.0 0.0
11 4 2 0.4238 11.1664904 0.0 0.577359
12 4 2 0.4238 9.533509600000002 0.0 0.577359
13 5 1 -0.8476 13.8 0.0 0.0
14 5 2 0.4238 14.6164904 0.0 0.577359
15 5 2 0.4238 12.983509600000001 0.0 0.577359
16 6 1 -0.8476 17.25 0.0 0.0
17 6 2 0.4238 18.0664904 0.0 0.577359
18 6 2 0.4238 16.4335096 0.0 0.577359
19 7 1 -0.8476 20.7 0.0 0.0
20 7 2 0.4238 21.5164904 0.0 0.577359
21 7 2 0.4238 19.8835096 0.0 0.577359
22 8 1 -0.8476 24.15 0.0 0.0
23 8 2 0.4238 24.966490399999998 0.0 0.577359
24 8 2 0.4238 23.3335096 0.0 0.577359
25 9 1 -0.8476 27.599999999999998 0.0 0.0
26 9 2 0.4238 28.416490399999997 0.0 0.577359
27 9 2 0.4238 26.7835096 0.0 0.577359
28 10 1 -0.8476 31.049999999999997 0.0 0.0
29 10 2 0.4238 31.866490399999996 0.0 0.577359
30 10 2 0.4238 30.233509599999998 0.0 0.577359
31 11 1 -0.8476 34.5 0.0 0.0
32 11 2 0.4238 35.3164904 0.0 0.577359
33 11 2 0.4238 33.6835096 0.0 0.577359
34 12 1 -0.8476 37.95 0.0 0.0
35 12 2 0.4238 38.7664904 0.0 0.577359
36 12 2 0.4238 37.133509600000004 0.0 0.577359
37 13 1 -0.8476 0.0 3.45 0.0
38 13 2 0.4238 0.8164904 3.45 0.577359
39 13 2 0.4238 -0.8164904 3.45 0.577359
40 14 1 -0.8476 3.45 3.45 0.0
41 14 2 0.4238 4.2664904 3.45 0.577359
42 14 2 0.4238 2.6335096 3.45 0.577359
43 15 1 -0.8476 6.9 3.45 0.0
44 15 2 0.4238 7.7164904000000005 3.45 0.577359
45 15 2 0.4238 6.0835096 3.45 0.577359
46 16 1 -0.8476 10.350000000000001 3.45 0.0
47 16 2 0.4238 11.1664904 3.45 0.577359
48 16 2 0.4238 9.533509600000002 3.45 0.577359
49 17 1 -0.8476 13.8 3.45 0.0
50 17 2 0.4238 14.6164904 3.45 0.577359
51 17 2 0.4238 12.983509600000001 3.45 0.577359
52 18 1 -0.8476 17.25 3.45 0.0
53 18 2 0.4238 18.0664904 3.45 0.577359
54 18 2 0.4238 16.4335096 3.45 0.577359
55 19 1 -0.8476 20.7 3.45 0.0
56 19 2 0.4238 21.5164904 3.45 0.577359
57 19 2 0.4238 19.8835096 3.45 0.577359
58 20 1 -0.8476 24.15 3.45 0.0
59 20 2 0.4238 24.966490399999998 3.45 0.577359
60 20 2 0.4238 23.3335096 3.45 0.577359
61 21 1 -0.8476 27.599999999999998 3.45 0.0
62 21 2 0.4238 28.416490399999997 3.45 0.577359
63 21 2 0.4238 26.7835096 3.45 0.577359
64 22 1 -0.8476 31.049999999999997 3.45 0.0
65 22 2 0.4238 31.866490399999996 3.45 0.577359
66 22 2 0.4238 30.233509599999998 3.45 0.577359
67 23 1 -0.8476 34.5 3.45 0.0
68 23 2 0.4238 35.3164904 3.45 0.577359
69 23 2 0.4238 33.6835096 3.45 0.577359
70 24 1 -0.8476 37.95 3.45 0.0
71 24 2 0.4238 38.7664904 3.45 0.577359
72 24 2 0.4238 37.133509600000004 3.45 0.577359
73 25 1 -0.8476 0.0 6.9 0.0
74 25 2 0.4238 0.8164904 6.9 0.577359
75 25 2 0.4238 -0.8164904 6.9 0.577359
76 26 1 -0.8476 3.45 6.9 0.0
77 26 2 0.4238 4.2664904 6.9 0.577359
78 26 2 0.4238 2.6335096 6.9 0.577359
79 27 1 -0.8476 6.9 6.9 0.0
80 27 2 0.4238 7.7164904000000005 6.9 0.577359
81 27 2 0.4238 6.0835096 6.9 0.577359
82 28 1 -0.8476 10.350000000000001 6.9 0.0
83 28 2 0.4238 11.1664904 6.9 0.577359
84 28 2 0.4238 9.533509600000002 6.9 0.577359
85 29 1 -0.8476 13.8 6.9 0.0
86 29 2 0.4238 14.6164904 6.9 0.577359
87 29 2 0.4238 12.983509600000001 6.9 0.577359
88 30 1 -0.8476 17.25 6.9 0.0
89 30 2 0.4238 18.0664904 6.9 0.577359
90 30 2 0.4238 16.4335096 6.9 0.577359
91 31 1 -0.8476 20.7 6.9 0.0
92 31 2 0.4238 21.5164904 6.9 0.577359
93 31 2 0.4238 19.8835096 6.9 0.577359
94 32 1 -0.8476 24.15 6.9 0.0
95 32 2 0.4238 24.966490399999998 6.9 0.577359
96 32 2 0.4238 23.3335096 6.9 0.577359
97 33 1 -0.8476 27.599999999999998 6.9 0.0
98 33 2 0.4238 28.416490399999997 6.9 0.577359
99 33 2 0.4238 26.7835096 6.9 0.577359
100 34 1 -0.8476 31.049999999999997 6.9 0.0
101 34 2 0.4238 31.866490399999996 6.9 0.577359
102 34 2 0.4238 30.233509599999998 6.9 0.577359
103 35 1 -0.8476 34.5 6.9 0.0
104 35 2 0.4238 35.3164904 6.9 0.577359
105 35 2 0.4238 33.6835096 6.9 0.577359
106 36 1 -0.8476 37.95 6.9 0.0
107 36 2 0.4238 38.7664904 6.9 0.577359
108 36 2 0.4238 37.133509600000004 6.9 0.577359
109 37 1 -0.8476 0.0 10.350000000000001 0.0
110 37 2 0.4238 0.8164904 10.350000000000001 0.577359
111 37 2 0.4238 -0.8164904 10.350000000000001 0.577359
112 38 1 -0.8476 3.45 10.350000000000001 0.0
113 38 2 0.4238 4.2664904 10.350000000000001 0.577359
114 38 2 0.4238 2.6335096 10.350000000000001 0.577359
115 39 1 -0.8476 6.9 10.350000000000001 0.0
116 39 2 0.4238 7.7164904000000005 10.350000000000001 0.577359
117 39 2 0.4238 6.0835096 10.350000000000001 0.577359
118 40 1 -0.8476 10.350000000000001 10.350000000000001 0.0
119 40 2 0.4238 11.1664904 10.350000000000001 0.577359
120 40 2 0.4238 9.533509600000002 10.350000000000001 0.577359
121 41 1 -0.8476 13.8 10.350000000000001 0.0
122 41 2 0.4238 14.6164904 10.350000000000001 0.577359
123 41 2 0.4238 12.983509600000001 10.350000000000001 0.577359
124 42 1 -0.8476 17.25 10.350000000000001 0.0
125 42 2 0.4238 18.0664904 10.350000000000001 0.577359
126 42 2 0.4238 16.4335096 10.350000000000001 0.577359
127 43 1 -0.8476 20.7 10.350000000000001 0.0
128 43 2 0.4238 21.5164904 10.350000000000001 0.577359
129 43 2 0.4238 19.8835096 10.350000000000001 0.577359
130 44 1 -0.8476 24.15 10.350000000000001 0.0
131 44 2 0.4238 24.966490399999998 10.350000000000001 0.577359
132 44 2 0.4238 23.3335096 10.350000000000001 0.577359
133 45 1 -0.8476 27.599999999999998 10.350000000000001 0.0
134 45 2 0.4238 28.416490399999997 10.350000000000001 0.577359
135 45 2 0.4238 26.7835096 10.350000000000001 0.577359
136 46 1 -0.8476 31.049999999999997 10.350000000000001 0.0
137 46 2 0.4238 31.866490399999996 10.350000000000001 0.577359
138 46 2 0.4238 30.233509599999998 10.350000000000001 0.577359
139 47 1 -0.8476 34.5 10.350000000000001 0.0
140 47 2 0.4238 35.3164904 10.350000000000001 0.577359
141 47 2 0.4238 33.6835096 10.350000000000001 0.577359
142 48 1 -0.8476 37.95 10.350000000000001 0.0
143 48 2 0.4238 38.7664904 10.350000000000001 0.577359
144 48 2 0.4238 37.133509600000004 10.350000000000001 0.577359
145 49 1 -0.8476 0.0 13.8 0.0
146 49 2 0.4238 0.8164904 13.8 0.577359
147 49 2 0.4238 -0.8164904 13.8 0.577359
148 50 1 -0.8476 3.45 13.8 0.0
149 50 2 0.4238 4.2664904 13.8 0.577359
150 50 2 0.4238 2.6335096 13.8 0.577359
151 51 1 -0.8476 6.9 13.8 0.0
152 51 2 0.4238 7.7164904000000005 13.8 0.577359
153 51 2 0.4238 6.0835096 13.8 0.577359
154 52 1 -0.8476 10.350000000000001 13.8 0.0
155 52 2 0.4238 11.1664904 13.8 0.577359
156 52 2 0.4238 9.533509600000002 13.8 0.577359
157 53 1 -0.8476 13.8 13.8 0.0
158 53 2 0.4238 14.6164904 13.8 0.577359
159 53 2 0.4238 12.983509600000001 13.8 0.577359
160 54 1 -0.8476 17.25 13.8 0.0
161 54 2 0.4238 18.0664904 13.8 0.577359
162 54 2 0.4238 16.4335096 13.8 0.577359
163 55 1 -0.8476 20.7 13.8 0.0
164 55 2 0.4238 21.5164904 13.8 0.577359
165 55 2 0.4238 19.8835096 13.8 0.577359
166 56 1 -0.8476 24.15 13.8 0.0
167 56 2 0.4238 24.966490399999998 13.8 0.577359
168 56 2 0.4238 23.3335096 13.8 0.577359
169 57 1 -0.8476 27.599999999999998 13.8 0.0
170 57 2 0.4238 28.416490399999997 13.8 0.577359
171 57 2 0.4238 26.7835096 13.8 0.577359
172 58 1 -0.8476 31.049999999999997 13.8 0.0
173 58 2 0.4238 31.866490399999996 13.8 0.577359
174 58 2 0.4238 30.233509599999998 13.8 0.577359
175 59 1 -0.8476 34.5 13.8 0.0
176 59 2 0.4238 35.3164904 13.8 0.577359
177 59 2 0.4238 33.6835096 13.8 0.577359
178 60 1 -0.8476 37.95 13.8 0.0
179 60 2 0.4238 38.7664904 13.8 0.577359
180 60 2 0.4238 37.133509600000004 13.8 0.577359
181 61 1 -0.8476 0.0 17.25 0.0
182 61 2 0.4238 0.8164904 17.25 0.577359
183 61 2 0.4238 -0.8164904 17.25 0.577359
184 62 1 -0.8476 3.45 17.25 0.0
185 62 2 0.4238 4.2664904 17.25 0.577359
186 62 2 0.4238 2.6335096 17.25 0.577359
187 63 1 -0.8476 6.9 17.25 0.0
188 63 2 0.4238 7.7164904000000005 17.25 0.577359
189 63 2 0.4238 6.0835096 17.25 0.577359
190 64 1 -0.8476 10.350000000000001 17.25 0.0
191 64 2 0.4238 11.1664904 17.25 0.577359
192 64 2 0.4238 9.533509600000002 17.25 0.577359
193 65 1 -0.8476 13.8 17.25 0.0
194 65 2 0.4238 14.6164904 17.25 0.577359
195 65 2 0.4238 12.983509600000001 17.25 0.577359
196 66 1 -0.8476 17.25 17.25 0.0
197 66 2 0.4238 18.0664904 17.25 0.577359
198 66 2 0.4238 16.4335096 17.25 0.577359
199 67 1 -0.8476 20.7 17.25 0.0
200 67 2 0.4238 21.5164904 17.25 0.577359
201 67 2 0.4238 19.8835096 17.25 0.577359
202 68 1 -0.8476 24.15 17.25 0.0
203 68 2 0.4238 24.966490399999998 17.25 0.577359
204 68 2 0.4238 23.3335096 17.25 0.577359
205 69 1 -0.8476 27.599999999999998 17.25 0.0
206 69 2 0.4238 28.416490399999997 17.25 0.577359
207 69 2 0.4238 26.7835096 17.25 0.577359
208 70 1 -0.8476 31.049999999999997 17.25 0.0
209 70 2 0.4238 31.866490399999996 17.25 0.577359
210 70 2 0.4238 30.233509599999998 17.25 0.577359
211 71 1 -0.8476 34.5 17.25 0.0
212 71 2 0.4238 35.3164904 17.25 0.577359
213 71 2 0.4238 33.6835096 17.25 0.577359
214 72 1 -0.8476 37.95 17.25 0.0
215 72 2 0.4238 38.7664904 17.25 0.577359
216 72 2 0.4238 37.133509600000004 17.25 0.577359
217 73 1 -0.8476 0.0 20.7 0.0
218 73 2 0.4238 0.8164904 20.7 0.577359
219 73 2 0.4238 -0.8164904 20.7 0.577359
220 74 1 -0.8476 3.45 20.7 0.0
221 74 2 0.4238 4.2664904 20.7 0.577359
222 74 2 0.4238 2.6335096 20.7 0.577359
223 75 1 -0.8476 6.9 20.7 0.0
224 75 2 0.4238 7.7164904000000005 20.7 0.577359
225 75 2 0.4238 6.0835096 20.7 0.577359
226 76 1 -0.8476 10.350000000000001 20.7 0.0
227 76 2 0.4238 11.1664904 20.7 0.577359
228 76 2 0.4238 9.533509600000002 20.7 0.577359
229 77 1 -0.8476 13.8 20.7 0.0
230 77 2 0.4238 14.6164904 20.7 0.577359
231 77 2 0.4238 12.983509600000001 20.7 0.577359
232 78 1 -0.8476 17.25 20.7 0.0
233 78 2 0.4238 18.0664904 20.7 0.577359
234 78 2 0.4238 16.4335096 20.7 0.577359
235 79 1 -0.8476 20.7 20.7 0.0
236 79 2 0.4238 21.5164904 20.7 0.577359
237 79 2 0.4238 19.8835096 20.7 0.577359
238 80 1 -0.8476 24.15 20.7 0.0
239 80 2 0.4238 24.966490399999998 20.7 0.577359
240 80 2 0.4238 23.3335096 20.7 0.577359
241 81 1 -0.8476 27.599999999999998 20.7 0.0
242 81 2 0.4238 28.416490399999997 20.7 0.577359
243 81 2 0.4238 26.7835096 20.7 0.577359
244 82 1 -0.8476 31.049999999999997 20.7 0.0
245 82 2 0.4238 31.866490399999996 20.7 0.577359
246 82 2 0.4238 30.233509599999998 20.7 0.577359
247 83 1 -0.8476 34.5 20.7 0.0
248 83 2 0.4238 35.3164904 20.7 0.577359
249 83 2 0.4238 33.6835096 20.7 0.577359
250 84 1 -0.8476 37.95 20.7 0.0
251 84 2 0.4238 38.7664904 20.7 0.577359
252 84 2 0.4238 37.133509600000004 20.7 0.577359
253 85 1 -0.8476 0.0 24.15 0.0
254 85 2 0.4238 0.8164904 24.15 0.577359
255 85 2 0.4238 -0.8164904 24.15 0.577359
256 86 1 -0.8476 3.45 24.15 0.0
257 86 2 0.4238 4.2664904 24.15 0.577359
258 86 2 0.4238 2.6335096 24.15 0.577359
259 87 1 -0.8476 6.9 24.15 0.0
260 87 2 0.4238 7.7164904000000005 24.15 0.577359
261 87 2 0.4238 6.0835096 24.15 0.577359
262 88 1 -0.8476 10.350000000000001 24.15 0.0
263 88 2 0.4238 11.1664904 24.15 0.577359
264 88 2 0.4238 9.533509600000002 24.15 0.577359
265 89 1 -0.8476 13.8 24.15 0.0
266 89 2 0.4238 14.6164904 24.15 0.577359
267 89 2 0.4238 12.983509600000001 24.15 0.577359
268 90 1 -0.8476 17.25 24.15 0.0
269 90 2 0.4238 18.0664904 24.15 0.577359
270 90 2 0.4238 16.4335096 24.15 0.577359
271 91 1 -0.8476 20.7 24.15 0.0
272 91 2 0.4238 21.5164904 24.15 0.577359
273 91 2 0.4238 19.8835096 24.15 0.577359
274 92 1 -0.8476 24.15 24.15 0.0
275 92 2 0.4238 24.966490399999998 24.15 0.577359
276 92 2 0.4238 23.3335096 24.15 0.577359
277 93 1 -0.8476 27.599999999999998 24.15 0.0
278 93 2 0.4238 28.416490399999997 24.15 0.577359
279 93 2 0.4238 26.7835096 24.15 0.577359
280 94 1 -0.8476 31.049999999999997 24.15 0.0
281 94 2 0.4238 31.866490399999996 24.15 0.577359
282 94 2 0.4238 30.233509599999998 24.15 0.577359
283 95 1 -0.8476 34.5 24.15 0.0
284 95 2 0.4238 35.3164904 24.15 0.577359
285 95 2 0.4238 33.6835096 24.15 0.577359
286 96 1 -0.8476 37.95 24.15 0.0
287 96 2 0.4238 38.7664904 24.15 0.577359
288 96 2 0.4238 37.133509600000004 24.15 0.577359
289 97 1 -0.8476 0.0 27.599999999999998 0.0
290 97 2 0.4238 0.8164904 27.599999999999998 0.577359
291 97 2 0.4238 -0.8164904 27.599999999999998 0.577359
292 98 1 -0.8476 3.45 27.599999999999998 0.0
293 98 2 0.4238 4.2664904 27.599999999999998 0.577359
294 98 2 0.4238 2.6335096 27.599999999999998 0.577359
295 99 1 -0.8476 6.9 27.599999999999998 0.0
296 99 2 0.4238 7.7164904000000005 27.599999999999998 0.577359
297 99 2 0.4238 6.0835096 27.599999999999998 0.577359
298 100 1 -0.8476 10.350000000000001 27.599999999999998 0.0
299 100 2 0.4238 11.1664904 27.599999999999998 0.577359
300 100 2 0.4238 9.533509600000002 27.599999999999998 0.577359
301 101 1 -0.8476 13.8 27.599999999999998 0.0
302 101 2 0.4238 14.6164904 27.599999999999998 0.577359
303 101 2 0.4238 12.983509600000001 27.599999999999998 0.577359
304 102 1 -0.8476 17.25 27.599999999999998 0.0
305 102 2 0.4238 18.0664904 27.599999999999998 0.577359