ITEM: TIMESTEP
1000
ITEM: NUMBER OF ATOMS
6464
ITEM: BOX BOUNDS pp pp pp
-7.9417570772836399e-02 6.0579417570772875e+01
-7.9417570772836399e-02 6.0579417570772875e+01
-7.9417570772836399e-02 6.0579417570772875e+01
ITEM: ATOMS id mol type x y z ix iy iz 
40 14 1 5.23139 3.87937 1.08484 0 0 0 
41 14 2 4.57385 3.32495 0.574634 0 0 0 
42 14 2 4.75685 4.37212 1.81426 0 0 0 
433 145 1 2.42809 0.688764 6.17223 0 0 0 
436 146 1 5.43777 1.70646 6.38025 0 0 0 
438 146 2 5.00716 1.38945 5.53519 0 0 0 
469 157 1 0.995408 2.97018 5.57761 0 0 0 
470 157 2 1.02676 3.63613 4.83224 0 0 0 
473 158 2 5.38132 5.24196 6.34747 0 0 0 
5188 1729 83 4.56075 0.556081 2.7577 0 0 0 
5189 1729 87 4.37993 1.50873 3.25875 0 0 0 
5190 1729 87 4.86559 0.799397 1.73861 0 0 0 
5197 1729 82 2.0888 0.525525 2.12653 0 0 0 
5198 1729 87 1.88453 1.42741 2.70571 0 0 0 
5199 1729 87 2.29347 0.824614 1.09847 0 0 0 
435 145 2 1.91682 1.45631 5.78554 0 0 0 
471 157 2 1.32061 3.39818 6.42088 0 0 0 
73 25 1 1.14572 4.89502 3.69261 0 0 0 
74 25 2 2.03449 4.9217 3.23499 0 0 0 
76 26 1 3.73963 5.43478 2.78866 0 0 0 
77 26 2 3.52505 6.03006 2.0143 0 0 0 
78 26 2 3.86041 5.98937 3.61199 0 0 0 
510 170 2 3.9399 6.37774 5.83394 0 0 0 
116 39 2 5.74333 5.39518 0.191383 0 0 0 
75 25 2 0.854145 5.82678 3.90904 0 0 0 
9 3 2 6.95999 3.323 1.16459 0 0 0 
45 15 2 8.68743 5.79513 2.29002 0 0 0 
441 147 2 7.04544 2.22306 6.57517 0 0 0 
7 3 1 7.9346 3.13742 1.29002 0 0 0 
8 3 2 8.31518 3.78574 1.94948 0 0 0 
10 4 1 10.6565 2.82298 0.89137 0 0 0 
11 4 2 11.0376 3.74547 0.829611 0 0 0 
12 4 2 9.65865 2.87091 0.846971 0 0 0 
15 5 2 11.0067 1.42689 1.77142 0 0 0 
43 15 1 9.28319 5.09545 2.68442 0 0 0 
44 15 2 10.159 5.09274 2.20178 0 0 0 
46 16 1 11.5263 5.52147 1.06051 0 0 0 
47 16 2 12.444 5.52425 0.662976 0 0 0 
48 16 2 11.2495 6.46006 1.26652 0 0 0 
440 147 2 8.28197 3.19346 6.13236 0 0 0 
442 148 1 12.2729 0.327638 4.7682 0 0 0 
443 148 2 11.6948 0.914303 5.33541 0 0 0 
444 148 2 11.9518 0.358346 3.82161 0 0 0 
475 159 1 6.78478 6.00043 5.58877 0 0 0 
476 159 2 7.59206 5.41306 5.53099 0 0 0 
478 160 1 9.05346 4.52073 5.31855 0 0 0 
479 160 2 9.18729 4.66787 4.33851 0 0 0 
480 160 2 9.89432 4.75157 5.80815 0 0 0 
5194 1729 83 7.00434 0.621544 3.49289 0 0 0 
5195 1729 87 6.81438 1.6297 3.86449 0 0 0 
5196 1729 87 7.37348 0.740342 2.47326 0 0 0 
5204 1729 87 9.00226 0.566233 4.34926 0 0 0 
5206 1730 87 13.3457 3.41756 1.85484 0 0 0 
5217 1730 82 12.9023 3.55441 3.95374 0 0 0 
5218 1730 87 13.2652 3.17131 4.90718 0 0 0 
5219 1730 87 12.9249 4.64287 3.99133 0 0 0 
5220 1730 87 11.8601 3.25148 3.84717 0 0 0 
13 5 1 11.1011 0.549092 2.24109 0 0 0 
14 5 2 10.2435 0.0395579 2.17096 0 0 0 
16 6 1 13.2855 0.133605 0.550258 0 0 0 
17 6 2 13.3464 1.03444 0.120336 0 0 0 
18 6 2 12.567 0.144084 1.24575 0 0 0 
874 292 1 10.7843 2.04415 6.47024 0 0 0 
875 292 2 10.947 3.03046 6.49807 0 0 0 
876 292 2 9.80442 1.86531 6.55874 0 0 0 
51 17 2 14.2782 6.10024 1.25251 0 0 0 
447 149 2 14.0945 0.312158 5.41606 0 0 0 
483 161 2 14.5923 5.39615 6.04897 0 0 0 
5205 1730 83 13.7416 3.01945 2.78938 0 0 0 
5207 1730 87 13.6283 1.93647 2.7338 0 0 0 
21 7 2 19.6433 1.34714 1.65739 0 0 0 
49 17 1 14.2259 5.86064 0.283032 0 0 0 
50 17 2 15.1486 5.72007 -0.0758335 0 0 0 
445 149 1 14.7061 0.638365 6.13693 0 0 0 
448 150 1 17.3097 1.55002 6.29182 0 0 0 
450 150 2 16.3961 1.25105 6.01609 0 0 0 
453 151 2 18.6623 1.89685 5.27841 0 0 0 
481 161 1 14.839 6.11852 5.40295 0 0 0 
482 161 2 15.7909 6.38696 5.55074 0 0 0 
485 162 2 18.0533 6.12829 5.50334 0 0 0 
489 163 2 19.7107 4.74689 6.1315 0 0 0 
5208 1730 83 15.2317 3.36676 2.91009 0 0 0 
5209 1730 87 15.643 2.9048 3.80854 0 0 0 
5210 1730 87 15.3482 4.44234 3.03669 0 0 0 
5211 1730 83 16.0281 2.91273 1.67933 0 0 0 
5212 1730 87 15.5921 3.3614 0.785746 0 0 0 
5213 1730 87 15.9298 1.83274 1.55874 0 0 0 
5214 1730 83 17.5118 3.29471 1.76067 0 0 0 
5215 1730 87 17.9658 2.8127 2.62563 0 0 0 
5216 1730 87 17.6039 4.3693 1.9245 0 0 0 
5221 1730 82 18.2764 2.9197 0.485764 0 0 0 
5222 1730 87 18.23 1.8484 0.290245 0 0 0 
5224 1730 87 19.324 3.21453 0.556848 0 0 0 
20 7 2 20.0026 1.59123 3.23159 0 0 0 
451 151 1 19.5314 2.11648 4.83516 0 0 0 
487 163 1 19.2837 4.91163 5.24234 0 0 0 
488 163 2 19.2217 4.05051 4.73769 0 0 0 
87 29 2 14.4147 6.5672 3.71768 0 0 0 
525 175 2 20.0091 6.42029 4.56661 0 0 0 
19 7 1 20.3389 1.22254 2.36498 0 0 0 
22 8 1 22.9664 0.617017 2.10163 0 0 0 
23 8 2 23.3531 1.38725 1.59445 0 0 0 
24 8 2 21.98 0.746635 2.20366 0 0 0 
60 20 2 23.4653 6.57936 -0.0945591 0 0 0 
63 21 2 26.3642 6.3934 0.131538 0 0 0 
452 151 2 20.2761 1.64868 5.31135 0 0 0 
454 152 1 25.3181 0.604617 6.11523 0 0 0 
456 152 2 25.0454 0.135313 5.27536 0 0 0 
495 165 2 26.504 6.1862 5.17529 0 0 0 
5225 1731 83 23.744 3.73816 3.29289 0 0 0 
5226 1731 87 23.6337 2.73427 3.70432 0 0 0 
5227 1731 87 24.2147 4.33346 4.07542 0 0 0 
5228 1731 83 24.6538 3.70393 2.05827 0 0 0 
5229 1731 87 24.7763 4.71609 1.67207 0 0 0 
5230 1731 87 24.1706 3.14022 1.26026 0 0 0 
5231 1731 83 26.0319 3.09894 2.35836 0 0 0 
5232 1731 87 25.9092 2.10252 2.78579 0 0 0 
5233 1731 87 26.5322 3.7032 3.11647 0 0 0 
5237 1731 82 22.3581 4.31122 2.97704 0 0 0 
5238 1731 87 22.4281 5.34126 2.62567 0 0 0 
5239 1731 87 21.8532 3.73013 2.20476 0 0 0 
5240 1731 87 21.7229 4.30256 3.86222 0 0 0 
5236 1731 87 26.419 2.39738 0.351223 0 0 0 
526 176 1 22.8825 6.34845 5.65251 0 0 0 
528 176 2 22.8648 5.35933 5.79867 0 0 0 
459 153 2 28.2788 0.741769 4.42553 0 0 0 
457 153 1 28.9339 1.12518 5.07657 0 0 0 
458 153 2 28.5108 1.182 5.98088 0 0 0 
462 154 2 30.276 -0.157486 4.94287 0 0 0 
493 165 1 27.2085 5.73144 5.72019 0 0 0 
494 165 2 27.7904 5.18174 5.12081 0 0 0 
496 166 1 28.9687 3.91167 4.67592 0 0 0 
497 166 2 28.8635 2.9187 4.62137 0 0 0 
498 166 2 29.4159 4.15267 5.53731 0 0 0 
5234 1731 83 26.9106 3.01607 1.10298 0 0 0 
5235 1731 87 27.0094 4.0088 0.663253 0 0 0 
5241 1731 82 28.3075 2.45571 1.3879 0 0 0 
5242 1731 87 28.8555 3.1015 2.07367 0 0 0 
5243 1731 87 28.2567 1.45812 1.82388 0 0 0 
5244 1731 87 28.8899 2.38852 0.468843 0 0 0 
5257 1732 82 31.9927 2.62609 2.34841 0 0 0 
5258 1732 87 31.5489 2.87636 3.31034 0 0 0 
5259 1732 87 32.2349 3.55973 1.83882 0 0 0 
5260 1732 87 31.2289 2.11876 1.75925 0 0 0 
499 167 1 32.7879 5.01096 4.81368 0 0 0 
500 167 2 32.7833 4.01544 4.71902 0 0 0 
501 167 2 33.0558 5.25595 5.74546 0 0 0 
5245 1732 83 33.23 1.7348 2.50673 0 0 0 
5246 1732 87 33.5755 1.44481 1.51378 0 0 0 
5247 1732 87 32.9475 0.813675 3.01874 0 0 0 
100 34 1 30.2134 6.17264 0.801677 0 0 0 
101 34 2 30.3655 5.91324 1.75543 0 0 0 
532 178 1 30.5057 5.86602 3.54362 0 0 0 
533 178 2 31.38 5.64356 3.97517 0 0 0 
534 178 2 29.8203 5.18846 3.81045 0 0 0 
537 179 2 33.5725 6.41127 4.14445 0 0 0 
892 298 1 31.4382 2.35218 5.95345 0 0 0 
893 298 2 31.1469 3.22828 6.3377 0 0 0 
894 298 2 30.6679 1.92204 5.48273 0 0 0 
897 299 2 32.357 1.07464 6.6334 0 0 0 
67 23 1 36.3647 5.32147 1.00972 0 0 0 
68 23 2 35.6852 6.05512 1.01936 0 0 0 
69 23 2 36.021 4.5559 0.465859 0 0 0 
70 24 1 38.4868 5.41689 2.69765 0 0 0 
71 24 2 39.2086 5.92009 2.22233 0 0 0 
72 24 2 37.6882 5.33657 2.10119 0 0 0 
502 168 1 37.5265 6.04147 5.19619 0 0 0 
503 168 2 37.9436 5.6465 4.3776 0 0 0 
5248 1732 83 34.3718 2.4251 3.26758 0 0 0 
5249 1732 87 34.0631 2.62438 4.29383 0 0 0 
5250 1732 87 34.5788 3.39477 2.81121 0 0 0 
5251 1732 83 35.6601 1.5917 3.28651 0 0 0 
5252 1732 87 35.9436 1.32966 2.26637 0 0 0 
5253 1732 87 35.4796 0.655297 3.81443 0 0 0 
5254 1732 83 36.8266 2.33467 3.94957 0 0 0 
5255 1732 87 36.5557 2.62898 4.96318 0 0 0 
5256 1732 87 37.0198 3.26199 3.41006 0 0 0 
5261 1732 82 38.11 1.49842 3.98721 0 0 0 
5262 1732 87 37.9711 0.582857 4.56203 0 0 0 
5263 1732 87 38.4307 1.22161 2.98241 0 0 0 
5264 1732 87 38.9217 2.06212 4.44834 0 0 0 
936 312 2 36.8816 5.36315 6.66239 0 0 0 
37 13 1 59.6698 1.29059 4.75163 -1 0 0 
38 13 2 59.1497 1.76107 4.03873 -1 0 0 
39 13 2 60.3665 1.90733 5.11791 -1 0 0 
109 37 1 2.37773 9.54404 1.05212 0 0 0 
110 37 2 2.5577 9.64957 2.03014 0 0 0 
112 38 1 3.31815 6.9966 0.679288 0 0 0 
113 38 2 4.19376 6.96393 0.197331 0 0 0 
114 38 2 2.97799 7.93694 0.689165 0 0 0 
505 169 1 1.1259 7.5675 4.7059 0 0 0 
506 169 2 2.09172 7.30823 4.70443 0 0 0 
508 170 1 3.71836 7.00166 5.08449 0 0 0 
509 170 2 3.99656 7.93017 5.33048 0 0 0 
541 181 1 2.08289 10.0162 3.78628 0 0 0 
542 181 2 1.54136 9.20179 3.9948 0 0 0 
544 182 1 4.15845 9.71235 5.49604 0 0 0 
545 182 2 5.03031 10.0711 5.16254 0 0 0 
546 182 2 3.43748 9.92108 4.83523 0 0 0 
5265 1733 83 3.22522 13.2137 0.466746 0 0 0 
5267 1733 87 2.89865 12.1781 0.56309 0 0 0 
5271 1733 83 5.54715 12.6812 1.39618 0 0 0 
5272 1733 87 5.94503 12.7891 0.386433 0 0 0 
5273 1733 87 5.30165 11.625 1.52068 0 0 0 
547 183 1 6.63538 10.6575 4.7884 0 0 0 
5274 1733 83 6.61896 13.0927 2.41347 0 0 0 
5275 1733 87 6.22216 12.9788 3.42157 0 0 0 
111 37 2 1.56275 10.0681 0.804719 0 0 0 
507 169 2 0.814342 7.68718 5.64859 0 0 0 
543 181 2 1.47305 10.7986 3.6598 0 0 0 
145 49 1 0.116809 11.1817 1.12992 0 0 0 
577 193 1 0.465102 12.3091 3.68572 0 0 0 
578 193 2 0.212549 13.2438 3.43572 0 0 0 
147 49 2 0.240261 11.5712 2.04266 0 0 0 
579 193 2 0.755346 12.2868 4.64243 0 0 0 
1009 337 1 1.17323 12.779 6.27607 0 0 0 
1010 337 2 2.09538 13.0299 6.57059 0 0 0 
477 159 2 6.84082 6.71367 4.89006 0 0 0 
81 27 2 7.52326 7.58411 2.39568 0 0 0 
117 39 2 6.65699 6.73539 0.38059 0 0 0 
513 171 2 7.10735 9.07823 4.24704 0 0 0 
549 183 2 6.83347 10.7031 5.76754 0 0 0 
79 27 1 7.9051 7.18591 1.5616 0 0 0 
80 27 2 8.81954 7.55824 1.40284 0 0 0 
82 28 1 10.5086 7.93052 2.12182 0 0 0 
83 28 2 10.6154 8.91674 1.99522 0 0 0 
84 28 2 10.4651 7.72269 3.09903 0 0 0 
118 40 1 10.7716 10.653 2.11845 0 0 0 
119 40 2 10.5248 10.7629 3.08128 0 0 0 
120 40 2 10.4807 11.4607 1.60553 0 0 0 
123 41 2 12.3587 9.94296 2.05864 0 0 0 
511 171 1 7.52105 8.18564 4.06767 0 0 0 
512 171 2 8.40025 8.12472 4.54026 0 0 0 
514 172 1 9.99646 8.00064 5.38597 0 0 0 
515 172 2 10.9627 7.74306 5.38485 0 0 0 
516 172 2 9.69127 8.14573 6.32716 0 0 0 
519 173 2 13.4435 7.05608 5.54176 0 0 0 
548 183 2 6.98855 11.4776 4.33827 0 0 0 
550 184 1 10.1148 10.6465 4.73282 0 0 0 
551 184 2 10.1743 11.1251 5.60886 0 0 0 
552 184 2 10.0256 9.66382 4.89524 0 0 0 
5281 1733 82 7.91188 12.2852 2.26239 0 0 0 
5282 1733 87 7.7279 11.2121 2.32566 0 0 0 
5283 1733 87 8.37869 12.485 1.29764 0 0 0 
5284 1733 87 8.62954 12.5531 3.03873 0 0 0 
5287 1734 87 13.3612 12.0899 2.11291 0 0 0 
5297 1734 82 12.514 13.3619 3.61921 0 0 0 
5298 1734 87 12.6761 12.67 4.44601 0 0 0 
5300 1734 87 11.4869 13.2317 3.27982 0 0 0 
121 41 1 13.217 9.45206 2.20831 0 0 0 
517 173 1 12.7132 7.73358 5.62927 0 0 0 
518 173 2 13.0451 8.6237 5.31692 0 0 0 
987 329 2 13.3568 10.5589 6.35497 0 0 0 
54 18 2 16.9357 6.87 0.486265 0 0 0 
57 19 2 20.1039 6.6665 0.420732 0 0 0 
484 162 1 17.4361 6.86499 5.77983 0 0 0 
486 162 2 17.488 7.61033 5.11514 0 0 0 
555 185 2 13.5904 9.92449 3.78989 0 0 0 
5285 1734 83 13.4983 13.1076 2.47455 0 0 0 
85 29 1 14.3187 6.91574 2.7853 0 0 0 
86 29 2 13.7364 7.72871 2.79171 0 0 0 
88 30 1 16.5485 7.98473 1.75853 0 0 0 
89 30 2 17.0383 8.42287 2.51233 0 0 0 
90 30 2 15.7415 7.51356 2.11454 0 0 0 
122 41 2 13.6611 9.28121 1.32872 0 0 0 
124 42 1 14.5142 8.72253 -0.0413207 0 0 0 
126 42 2 15.4318 8.67688 0.353734 0 0 0 
520 174 1 17.5075 9.03267 4.09158 0 0 0 
521 174 2 18.4535 9.35631 4.11505 0 0 0 
522 174 2 16.9135 9.70732 4.52969 0 0 0 
553 185 1 13.8074 10.0324 4.7601 0 0 0 
554 185 2 14.7245 10.4195 4.85547 0 0 0 
556 186 1 16.2414 11.0463 5.37791 0 0 0 
557 186 2 16.6354 11.926 5.11137 0 0 0 
558 186 2 16.1263 11.0198 6.37093 0 0 0 
5288 1734 83 14.9572 13.3162 2.89623 0 0 0 
5289 1734 87 15.1357 12.7926 3.83201 0 0 0 
5291 1734 83 15.9443 12.8188 1.83301 0 0 0 
5292 1734 87 15.7362 13.3235 0.888344 0 0 0 
5293 1734 87 15.7812 11.7541 1.65435 0 0 0 
5294 1734 83 17.4082 13.0548 2.22668 0 0 0 
5295 1734 87 17.6307 12.5437 3.1636 0 0 0 
5301 1734 82 18.3838 12.5797 1.14706 0 0 0 
5302 1734 87 18.3069 11.5029 0.990561 0 0 0 
5303 1734 87 18.1832 13.0722 0.194841 0 0 0 
5304 1734 87 19.4092 12.8188 1.42701 0 0 0 
559 187 1 19.9911 9.94046 4.49006 0 0 0 
560 187 2 20.1115 10.4739 5.32732 0 0 0 
1026 342 2 18.0136 13.3895 6.43641 0 0 0 
93 31 2 20.6609 8.77287 1.65313 0 0 0 
129 43 2 20.5449 11.2566 1.56359 0 0 0 
561 187 2 20.3421 9.01478 4.63118 0 0 0 
91 31 1 20.7456 7.77673 1.67719 0 0 0 
92 31 2 20.6236 7.45441 2.61595 0 0 0 
94 32 1 23.4304 7.88661 1.15242 0 0 0 
95 32 2 23.6847 8.74413 0.705197 0 0 0 
96 32 2 22.4353 7.83827 1.23916 0 0 0 
99 33 2 25.0226 7.37182 1.46682 0 0 0 
127 43 1 20.91 10.4675 2.05769 0 0 0 
128 43 2 20.4773 10.4083 2.95731 0 0 0 
130 44 1 24.6392 10.0757 0.0990872 0 0 0 
131 44 2 25.6015 9.80392 0.0916793 0 0 0 
523 175 1 20.6089 7.20482 4.40928 0 0 0 
524 175 2 21.52 7.00539 4.76996 0 0 0 
527 176 2 23.0226 6.81221 6.52734 0 0 0 
531 177 2 24.3526 6.70085 4.69839 0 0 0 
562 188 1 23.0572 9.47186 3.65453 0 0 0 
563 188 2 22.4166 9.97363 3.07316 0 0 0 
564 188 2 23.4826 8.73757 3.12545 0 0 0 
567 189 2 24.9711 10.0872 4.70957 0 0 0 
5305 1735 83 23.3512 12.8378 2.99239 0 0 0 
5307 1735 87 23.1529 11.9147 2.44879 0 0 0 
5308 1735 83 24.7029 12.7338 3.71179 0 0 0 
5309 1735 87 24.587 12.1767 4.64244 0 0 0 
5311 1735 83 25.7597 12.0404 2.84201 0 0 0 
5312 1735 87 25.7955 12.5085 1.85733 0 0 0 
5313 1735 87 25.4552 11.0054 2.67709 0 0 0 
5317 1735 82 22.1888 13.1083 3.95215 0 0 0 
5318 1735 87 22.0744 12.2947 4.66808 0 0 0 
5320 1735 87 21.2475 13.2092 3.41119 0 0 0 
97 33 1 25.9551 7.17499 1.76992 0 0 0 
98 33 2 25.9514 6.97187 2.74908 0 0 0 
134 45 2 26.868 8.38795 0.898359 0 0 0 
529 177 1 25.2626 6.99903 4.41037 0 0 0 
530 177 2 25.4229 7.93388 4.72725 0 0 0 
565 189 1 25.5547 9.48547 5.25485 0 0 0 
566 189 2 26.1157 10.0359 5.87313 0 0 0 
994 332 1 22.5249 9.70224 6.36737 0 0 0 
996 332 2 22.7371 9.6142 5.39411 0 0 0 
102 34 2 30.1405 7.16773 0.73445 0 0 0 
133 45 1 27.2264 8.94681 0.150496 0 0 0 
136 46 1 29.9596 8.89906 1.02362 0 0 0 
137 46 2 30.038 8.96956 2.01806 0 0 0 
138 46 2 29.0267 9.12822 0.745768 0 0 0 
568 190 1 30.3152 8.61409 3.79176 0 0 0 
569 190 2 29.7691 8.93782 4.56448 0 0 0 
570 190 2 30.2873 7.61498 3.75925 0 0 0 
5314 1735 83 27.1613 12.0711 3.46354 0 0 0 
5315 1735 87 27.1062 11.8101 4.5182 0 0 0 
5316 1735 87 27.56 13.0853 3.4227 0 0 0 
5321 1735 82 28.1268 11.1046 2.77178 0 0 0 
5322 1735 87 27.7796 10.0751 2.86615 0 0 0 
5323 1735 87 28.228 11.3291 1.71081 0 0 0 
5324 1735 87 29.1196 11.1577 3.21732 0 0 0 
5340 1736 87 29.8384 13.1009 4.45075 0 0 0 
139 47 1 32.4175 8.74626 -0.161036 0 0 0 
141 47 2 31.5306 8.85859 0.287046 0 0 0 
144 48 2 33.3821 10.1798 0.213682 0 0 0 
536 179 2 33.4042 8.03522 4.17926 0 0 0 
571 191 1 32.6946 9.65877 4.57057 0 0 0 
572 191 2 32.9611 10.3084 3.8585 0 0 0 
573 191 2 31.7931 9.282 4.35764 0 0 0 
5325 1736 83 31.9035 12.7077 3.90733 0 0 0 
5326 1736 87 31.6428 11.7715 3.41441 0 0 0 
5327 1736 87 32.182 12.4623 4.93155 0 0 0 
5328 1736 83 33.0991 13.3415 3.18263 0 0 0 
174 58 2 27.9419 12.947 0.310221 0 0 0 
1000 334 1 29.2936 9.66504 6.09682 0 0 0 
1001 334 2 30.0295 10.2199 6.48503 0 0 0 
1002 334 2 28.4112 10.0812 6.3161 0 0 0 
1005 335 2 32.1809 10.236 6.59598 0 0 0 
504 168 2 37.224 6.97408 4.99927 0 0 0 
103 35 1 34.4108 7.23307 1.12377 0 0 0 
104 35 2 34.1774 7.18208 2.09483 0 0 0 
105 35 2 33.6698 7.68383 0.626051 0 0 0 
106 36 1 35.8821 9.45248 1.83391 0 0 0 
107 36 2 36.316 9.24368 2.71033 0 0 0 
108 36 2 35.5257 8.61023 1.4294 0 0 0 
142 48 1 33.9762 10.9391 0.479453 0 0 0 
143 48 2 34.7765 10.5831 0.961974 0 0 0 
535 179 1 33.9438 7.27797 3.81123 0 0 0 
538 180 1 36.3437 8.4469 4.42739 0 0 0 
539 180 2 36.0816 9.14396 5.09482 0 0 0 
540 180 2 35.5385 7.91305 4.16931 0 0 0 
574 192 1 34.9992 10.2146 6.07783 0 0 0 
575 192 2 35.0037 11.1353 6.46823 0 0 0 
576 192 2 34.1795 10.094 5.51785 0 0 0 
5331 1736 83 34.4228 12.6188 3.485 0 0 0 
5332 1736 87 34.3111 11.5484 3.31467 0 0 0 
5333 1736 87 34.6483 12.7355 4.54582 0 0 0 
5334 1736 83 35.6084 13.1122 2.63936 0 0 0 
5336 1736 87 35.5104 12.7396 1.61994 0 0 0 
5341 1736 82 36.9579 12.6653 3.21342 0 0 0 
5342 1736 87 37.1229 13.0576 4.21726 0 0 0 
5343 1736 87 37.0182 11.578 3.26969 0 0 0 
5344 1736 87 37.7797 13.0058 2.58283 0 0 0 
146 49 2 59.9687 11.5876 0.700688 -1 0 0 
5268 1733 83 4.27361 13.5214 1.54251 0 0 0 
5269 1733 87 3.84099 13.364 2.53225 0 0 0 
5270 1733 87 4.54204 14.574 1.49076 0 0 0 
5277 1733 82 2.00942 14.1421 0.556895 0 0 0 
5278 1733 87 1.53801 14.0775 1.53758 0 0 0 
5279 1733 87 2.29055 15.1813 0.386703 0 0 0 
148 50 1 5.71695 16.8268 0.121232 0 0 0 
150 50 2 5.00532 16.8337 0.82378 0 0 0 
182 61 2 0.391871 16.9597 1.33673 0 0 0 
184 62 1 3.78679 17.0129 1.99365 0 0 0 
185 62 2 3.07215 17.428 1.43057 0 0 0 
186 62 2 3.36764 16.4145 2.67649 0 0 0 
189 63 2 5.09723 17.542 3.03008 0 0 0 
580 194 1 4.70613 14.4792 5.16562 0 0 0 
581 194 2 5.63837 14.8229 5.27902 0 0 0 
582 194 2 4.42348 14.0016 5.9975 0 0 0 
613 205 1 0.0107077 15.0554 3.92405 0 0 0 
614 205 2 0.987184 15.2709 3.93336 0 0 0 
616 206 1 2.60266 15.7287 4.09853 0 0 0 
617 206 2 2.60717 16.6181 4.55569 0 0 0 
618 206 2 3.36143 15.1743 4.4405 0 0 0 
187 63 1 5.87289 17.8295 3.59197 0 0 0 
217 73 1 0.0805285 19.6957 1.884 0 0 0 
218 73 2 0.448021 19.9618 2.77517 0 0 0 
220 74 1 1.84824 18.0456 0.437005 0 0 0 
222 74 2 1.27538 18.8217 0.700793 0 0 0 
652 218 1 2.76556 18.2226 5.12433 0 0 0 
653 218 2 3.7141 18.5375 5.15794 0 0 0 
654 218 2 2.20025 18.9148 4.67561 0 0 0 
657 219 2 6.0918 19.5509 6.31665 0 0 0 
5346 1737 87 4.75431 19.9545 1.56388 0 0 0 
655 219 1 5.33876 19.0257 5.92022 0 0 0 
656 219 2 5.64242 18.5985 5.06858 0 0 0 
1011 337 2 0.548087 13.5389 6.45438 0 0 0 
5276 1733 87 6.84617 14.1539 2.30082 0 0 0 
5286 1734 87 13.263 13.7608 1.63362 0 0 0 
5299 1734 87 12.6082 14.3749 4.0072 0 0 0 
153 51 2 7.17638 17.4093 1.02378 0 0 0 
585 195 2 7.51466 16.3998 6.04578 0 0 0 
151 51 1 7.8927 17.5132 1.71381 0 0 0 
152 51 2 8.40225 16.6567 1.79684 0 0 0 
154 52 1 9.39305 15.3278 1.9572 0 0 0 
155 52 2 10.2936 15.4465 1.53899 0 0 0 
156 52 2 9.49677 14.9054 2.85768 0 0 0 
159 53 2 12.7243 15.9455 1.02786 0 0 0 
188 63 2 6.71573 17.7573 3.05863 0 0 0 
190 64 1 10.3164 18.5989 2.4576 0 0 0 
191 64 2 9.35952 18.4151 2.23261 0 0 0 
192 64 2 10.6535 17.8939 3.08159 0 0 0 
583 195 1 7.2718 15.4649 5.7867 0 0 0 
584 195 2 8.0253 15.0551 5.27258 0 0 0 
586 196 1 9.68864 14.7297 4.7194 0 0 0 
587 196 2 10.2388 15.5375 4.50775 0 0 0 
588 196 2 10.0206 14.3126 5.56551 0 0 0 
622 208 1 11.2627 16.8876 4.34431 0 0 0 
623 208 2 12.2421 16.731 4.21649 0 0 0 
624 208 2 11.1143 17.3953 5.19296 0 0 0 
157 53 1 11.76 16.0081 0.770474 0 0 0 
158 53 2 11.5975 16.8726 0.294701 0 0 0 
5352 1737 87 6.99472 20.0763 2.78794 0 0 0 
226 76 1 11.4193 18.7066 0.0136115 0 0 0 
228 76 2 10.9817 18.7201 0.912719 0 0 0 
231 77 2 13.0353 19.153 0.681739 0 0 0 
658 220 1 12.3587 20.0782 3.68749 0 0 0 
660 220 2 11.5496 19.68 3.25518 0 0 0 
230 77 2 13.3568 19.6984 2.18702 0 0 0 
1054 352 1 11.0281 18.2723 6.64104 0 0 0 
1056 352 2 11.2076 19.2535 6.56888 0 0 0 
5290 1734 87 15.1314 14.3728 3.09991 0 0 0 
5296 1734 87 17.5709 14.118 2.40689 0 0 0 
195 65 2 14.2846 16.4391 2.52561 0 0 0 
591 197 2 14.7405 14.5679 6.46564 0 0 0 
627 209 2 14.5678 16.0998 4.76683 0 0 0 
160 54 1 19.6976 15.6477 0.698069 0 0 0 
193 65 1 14.3511 16.5852 1.53857 0 0 0 
194 65 2 14.2414 17.5587 1.33764 0 0 0 
196 66 1 17.2347 16.7957 1.02652 0 0 0 
197 66 2 18.0645 16.2871 0.796854 0 0 0 
198 66 2 16.432 16.2524 0.78052 0 0 0 
589 197 1 15.3532 15.2926 6.15012 0 0 0 
590 197 2 16.215 14.8898 5.84188 0 0 0 
592 198 1 17.9169 14.6237 5.19693 0 0 0 
593 198 2 18.8766 14.8743 5.32421 0 0 0 
594 198 2 17.4855 15.267 4.5644 0 0 0 
625 209 1 13.9781 16.7354 4.26841 0 0 0 
626 209 2 14.2158 17.6746 4.51618 0 0 0 
628 210 1 17.0259 16.6953 3.74993 0 0 0 
629 210 2 17.0747 16.6888 2.75113 0 0 0 
630 210 2 17.0582 17.6391 4.07905 0 0 0 
633 211 2 19.4012 18.8878 5.73988 0 0 0 
596 199 2 20.0913 16.5477 6.07197 0 0 0 
631 211 1 19.9688 19.3253 5.04242 0 0 0 
663 221 2 14.0274 19.7085 4.41116 0 0 0 
229 77 1 13.7521 19.2857 1.36637 0 0 0 
232 78 1 16.5484 19.3633 1.5873 0 0 0 
233 78 2 16.8635 18.4728 1.25882 0 0 0 
234 78 2 15.5786 19.4746 1.37009 0 0 0 
661 221 1 14.6859 19.2434 5.00303 0 0 0 
662 221 2 15.6146 19.4492 4.6947 0 0 0 
664 222 1 17.2634 19.4678 4.15526 0 0 0 
665 222 2 17.0796 19.5683 3.17743 0 0 0 
666 222 2 18.224 19.6778 4.33718 0 0 0 
5306 1735 87 23.4007 13.6232 2.23693 0 0 0 
5310 1735 87 25.0414 13.7313 3.99439 0 0 0 
5319 1735 87 22.3471 14.0275 4.51306 0 0 0 
161 54 2 20.1991 15.7911 1.55132 0 0 0 
162 54 2 20.3433 15.6003 -0.0640785 0 0 0 
165 55 2 20.8692 16.0221 3.84435 0 0 0 
201 67 2 21.0643 17.9454 2.46686 0 0 0 
597 199 2 20.8126 15.0886 6.2039 0 0 0 
163 55 1 21.2061 16.1914 2.91815 0 0 0 
164 55 2 22.2014 16.0952 2.90272 0 0 0 
166 56 1 23.98 16.3221 2.89661 0 0 0 
167 56 2 24.8112 15.9283 2.50418 0 0 0 
168 56 2 24.0024 17.3167 2.79536 0 0 0 
171 57 2 26.7905 15.2804 3.12539 0 0 0 
199 67 1 21.0992 18.9435 2.5174 0 0 0 
200 67 2 20.5397 19.2582 3.28425 0 0 0 
202 68 1 23.9006 19.107 2.88169 0 0 0 
203 68 2 24.2047 19.9052 2.36175 0 0 0 
204 68 2 22.9013 19.0932 2.917 0 0 0 
595 199 1 20.3655 15.7245 5.5748 0 0 0 
598 200 1 23.792 16.0627 5.63683 0 0 0 
599 200 2 23.9358 16.0159 4.64831 0 0 0 
600 200 2 23.8927 15.1496 6.03193 0 0 0 
603 201 2 26.3741 16.5447 4.93351 0 0 0 
632 211 2 20.8986 18.9607 5.09257 0 0 0 
634 212 1 22.3714 18.3341 5.48286 0 0 0 
635 212 2 22.9558 18.9927 5.95691 0 0 0 
636 212 2 22.7818 17.4239 5.53824 0 0 0 
639 213 2 25.1009 18.631 4.0446 0 0 0 
169 57 1 26.5079 15.4709 2.18523 0 0 0 
637 213 1 25.8747 18.321 4.59701 0 0 0 
638 213 2 26.0934 19.0148 5.28324 0 0 0 
1035 345 2 26.8901 14.3545 6.03399 0 0 0 
5337 1736 82 30.6596 13.599 3.93591 0 0 0 
5338 1736 87 30.8536 14.5258 4.46961 0 0 0 
5339 1736 87 30.3228 13.8488 2.92929 0 0 0 
5329 1736 87 33.1888 14.3907 3.4632 0 0 0 
5330 1736 87 32.9014 13.3324 2.11256 0 0 0 
207 69 2 27.37 17.1952 2.07728 0 0 0 
170 57 2 27.0284 14.8925 1.55706 0 0 0 
172 58 1 28.0619 13.8947 0.606209 0 0 0 
173 58 2 29.0096 14.1744 0.452301 0 0 0 
205 69 1 27.5742 18.0804 2.49544 0 0 0 
206 69 2 27.0171 18.197 3.31767 0 0 0 
208 70 1 30.0169 19.4116 3.12102 0 0 0 
209 70 2 29.7413 19.6736 4.04593 0 0 0 
210 70 2 29.3404 18.7832 2.73705 0 0 0 
601 201 1 26.9858 15.7542 4.96512 0 0 0 
602 201 2 27.9331 16.0682 5.03025 0 0 0 
604 202 1 29.4467 16.8007 5.32151 0 0 0 
605 202 2 30.2777 16.7678 4.76619 0 0 0 
606 202 2 29.6421 16.4445 6.2353 0 0 0 
640 214 1 29.2473 19.4653 5.83259 0 0 0 
642 214 2 29.2325 18.5514 5.42704 0 0 0 
175 59 1 30.6769 14.4628 0.210025 0 0 0 
177 59 2 30.9363 15.3314 0.632249 0 0 0 
211 71 1 31.658 16.7246 1.51678 0 0 0 
212 71 2 31.5913 16.6766 2.51342 0 0 0 
213 71 2 32.0853 17.5892 1.25253 0 0 0 
216 72 2 33.1866 15.9475 1.07743 0 0 0 
607 203 1 33.0944 15.4851 6.22872 0 0 0 
609 203 2 32.6699 14.6174 6.48744 0 0 0 
643 215 1 31.9238 16.895 4.24889 0 0 0 
644 215 2 32.2172 17.8468 4.33866 0 0 0 
645 215 2 32.3912 16.3361 4.93385 0 0 0 
242 81 2 27.085 19.4056 1.35582 0 0 0 
250 84 1 33.3749 18.7465 1.00799 0 0 0 
252 84 2 32.9899 19.6508 0.823448 0 0 0 
679 227 1 32.4967 19.5179 4.50692 0 0 0 
680 227 2 31.8638 19.5973 3.73671 0 0 0 
681 227 2 32.2365 20.1685 5.22049 0 0 0 
5335 1736 87 35.5985 14.195 2.54086 0 0 0 
180 60 2 33.7533 14.1799 -0.0468556 0 0 0 
214 72 1 34.1561 15.7383 0.948824 0 0 0 
215 72 2 34.6978 16.2415 1.62222 0 0 0 
608 203 2 33.9763 15.3076 5.79213 0 0 0 
610 204 1 35.4624 15.4536 4.77064 0 0 0 
611 204 2 35.6575 14.6586 4.19626 0 0 0 
612 204 2 35.3292 16.2582 4.19199 0 0 0 
646 216 1 35.0013 17.5998 3.07944 0 0 0 
647 216 2 34.4135 18.0783 2.42707 0 0 0 
648 216 2 35.2317 18.2146 3.83373 0 0 0 
251 84 2 33.8529 18.4154 0.194447 0 0 0 
682 228 1 35.0928 19.2092 5.37714 0 0 0 
683 228 2 35.32 19.97 5.98511 0 0 0 
684 228 2 34.1501 19.3077 5.05805 0 0 0 
1044 348 2 36.0664 15.0938 6.36203 0 0 0 
181 61 1 60.2541 17.0017 1.93979 -1 0 0 
183 61 2 60.3015 16.2581 2.60681 -1 0 0 
615 205 2 60.3178 15.0619 4.86016 -1 0 0 
219 73 2 60.33 18.7858 1.95049 -1 0 0 
253 85 1 -0.00866482 21.7044 0.0292475 0 0 0 
254 85 2 -0.0310052 20.9266 0.657387 0 0 0 
256 86 1 6.18178 25.5561 0.577415 0 0 0 
257 86 2 5.42186 25.971 1.07779 0 0 0 
258 86 2 5.86596 24.7238 0.121825 0 0 0 
649 217 1 1.19006 20.3212 4.33957 0 0 0 
650 217 2 0.753453 20.3352 5.23914 0 0 0 
685 229 1 2.66636 22.5427 4.64564 0 0 0 
686 229 2 3.62617 22.8234 4.65041 0 0 0 
688 230 1 5.21733 23.5005 5.1066 0 0 0 
689 230 2 6.17397 23.7558 4.96635 0 0 0 
690 230 2 5.08151 23.2269 6.05884 0 0 0 
5345 1737 83 4.57394 20.9843 1.87471 0 0 0 
5347 1737 87 4.12521 20.9238 2.86687 0 0 0 
5348 1737 83 5.90615 21.7428 1.9545 0 0 0 
5349 1737 87 5.71776 22.787 2.20759 0 0 0 
5350 1737 87 6.38772 21.7402 0.976537 0 0 0 
5353 1737 87 6.38251 21.1918 3.9814 0 0 0 
5357 1737 82 3.57685 21.6437 0.916352 0 0 0 
5358 1737 87 3.31641 22.6489 1.24933 0 0 0 
5360 1737 87 2.65165 21.0685 0.867158 0 0 0 
651 217 2 1.74805 21.1434 4.22702 0 0 0 
687 229 2 2.18377 22.9927 5.3971 0 0 0 
294 98 2 4.03165 26.4628 2.99657 0 0 0 
721 241 1 1.13665 26.561 4.43187 0 0 0 
722 241 2 2.0296 26.1175 4.35412 0 0 0 
724 242 1 3.76795 25.7326 4.58997 0 0 0 
725 242 2 3.84804 26.1429 5.49844 0 0 0 
726 242 2 4.24581 24.8542 4.5776 0 0 0 
723 241 2 0.879516 26.6258 5.39609 0 0 0 
261 87 2 7.63689 26.443 0.687808 0 0 0 
693 231 2 7.75477 25.513 5.24391 0 0 0 
5351 1737 83 6.85135 21.1351 2.99844 0 0 0 
260 87 2 9.14513 26.4888 1.31219 0 0 0 
262 88 1 10.2893 25.5747 2.32673 0 0 0 
263 88 2 10.1893 24.6806 2.76346 0 0 0 
264 88 2 10.5904 26.2451 3.00491 0 0 0 
659 220 2 12.1038 20.4767 4.56856 0 0 0 
691 231 1 7.81443 24.5149 5.25921 0 0 0 
692 231 2 8.75632 24.2344 5.0742 0 0 0 
694 232 1 10.4899 24.3378 4.96478 0 0 0 
695 232 2 10.8236 25.2771 4.88544 0 0 0 
696 232 2 10.939 23.8886 5.73724 0 0 0 
5354 1737 83 8.22402 21.8161 3.03667 0 0 0 
5355 1737 87 8.10396 22.8981 3.08483 0 0 0 
5356 1737 87 8.75876 21.6076 2.10948 0 0 0 
5361 1737 82 9.06322 21.3438 4.22843 0 0 0 
5362 1737 87 8.6181 21.6525 5.1738 0 0 0 
5363 1737 87 9.15413 20.2581 4.24923 0 0 0 
5364 1737 87 10.0687 21.7605 4.18401 0 0 0 
5377 1738 82 13.1831 23.5444 3.07702 0 0 0 
5378 1738 87 13.1132 24.4962 3.60112 0 0 0 
5379 1738 87 13.1198 23.7413 2.00637 0 0 0 
5380 1738 87 12.314 22.9479 3.35484 0 0 0 
298 100 1 11.9079 26.0506 0.144039 0 0 0 
299 100 2 12.8684 26.0134 0.419982 0 0 0 
300 100 2 11.3366 25.6754 0.874014 0 0 0 
1090 364 1 11.8354 20.8963 6.33772 0 0 0 
1092 364 2 11.5841 21.8191 6.62984 0 0 0 
267 89 2 16.0906 26.1232 0.347703 0 0 0 
699 233 2 14.8907 25.0437 6.41915 0 0 0 
5365 1738 83 14.4788 22.8106 3.43166 0 0 0 
5366 1738 87 14.463 21.8274 2.95956 0 0 0 
5367 1738 87 14.5145 22.6352 4.5081 0 0 0 
265 89 1 16.87 26.5566 -0.104616 0 0 0 
270 90 2 18.6768 26.6792 -0.165449 0 0 0 
697 233 1 15.1474 25.876 5.92782 0 0 0 
698 233 2 16.114 25.8295 5.67568 0 0 0 
700 234 1 17.8265 25.9409 5.36533 0 0 0 
701 234 2 18.7546 25.5717 5.31525 0 0 0 
702 234 2 17.7804 26.7975 4.85147 0 0 0 
5368 1738 83 15.7379 23.5654 2.98092 0 0 0 
5369 1738 87 15.7969 24.5312 3.48373 0 0 0 
5370 1738 87 15.6709 23.7783 1.91263 0 0 0 
5371 1738 83 17.0064 22.7499 3.25644 0 0 0 
5372 1738 87 16.9092 21.7818 2.76632 0 0 0 
5373 1738 87 17.0854 22.547 4.32503 0 0 0 
5374 1738 83 18.2918 23.4193 2.7564 0 0 0 
5375 1738 87 18.4031 24.4043 3.20928 0 0 0 
5376 1738 87 18.2224 23.5837 1.68005 0 0 0 
5381 1738 82 19.5278 22.5675 3.06774 0 0 0 
5382 1738 87 19.6446 22.4237 4.14239 0 0 0 
5383 1738 87 19.4549 21.583 2.60466 0 0 0 
303 101 2 14.1965 26.3904 2.29686 0 0 0 
735 245 2 14.264 26.6366 4.65777 0 0 0 
301 101 1 14.3691 26.5089 1.31899 0 0 0 
1134 378 2 17.5533 24.0719 6.11205 0 0 0 
237 79 2 21.2455 20.9865 0.000119325 0 0 0 
269 90 2 20.1974 26.3169 0.307285 0 0 0 
273 91 2 21.0668 24.3709 1.24399 0 0 0 
669 223 2 20.9083 20.8306 5.59576 0 0 0 
705 235 2 20.3924 24.5165 6.4618 0 0 0 
5384 1738 87 20.4359 23.04 2.69768 0 0 0 
235 79 1 21.8601 20.9244 0.786519 0 0 0 
236 79 2 21.5445 20.2002 1.39977 0 0 0 
238 80 1 24.4415 21.3643 1.41498 0 0 0 
239 80 2 24.6605 22.3363 1.50096 0 0 0 
240 80 2 23.5024 21.2619 1.08716 0 0 0 
243 81 2 26.0321 20.5839 0.943935 0 0 0 
271 91 1 21.406 25.3113 1.22009 0 0 0 
272 91 2 22.3983 25.3047 1.09624 0 0 0 
274 92 1 24.1836 25.3457 1.20668 0 0 0 
275 92 2 24.2348 26.1756 1.76233 0 0 0 
276 92 2 25.083 25.1502 0.815788 0 0 0 
667 223 1 21.5022 21.3721 6.19079 0 0 0 
671 224 2 24.839 20.4832 6.39962 0 0 0 
672 224 2 23.2472 20.8468 6.37523 0 0 0 
703 235 1 20.3074 24.9649 5.57197 0 0 0 
704 235 2 21.1785 24.9058 5.08443 0 0 0 
707 236 2 24.9762 25.6673 6.51225 0 0 0 
5385 1739 83 24.3334 23.085 4.52281 0 0 0 
5386 1739 87 24.3102 22.0235 4.27254 0 0 0 
5387 1739 87 24.3712 23.1437 5.61133 0 0 0 
5388 1739 83 25.5891 23.7325 3.92669 0 0 0 
5389 1739 87 25.6428 24.7772 4.23447 0 0 0 
5390 1739 87 25.5165 23.7368 2.83994 0 0 0 
5391 1739 83 26.8719 22.9959 4.32493 0 0 0 
5392 1739 87 26.8153 21.9656 3.96995 0 0 0 
5397 1739 82 23.0483 23.7443 4.01767 0 0 0 
5398 1739 87 23.0384 24.8134 4.2324 0 0 0 
5399 1739 87 22.9449 23.6174 2.94054 0 0 0 
5400 1739 87 22.1757 23.2896 4.48262 0 0 0 