LAMMPS (24 Jan 2020)
OMP_NUM_THREADS environment is not set. Defaulting to 1 thread. (../comm.cpp:94)
  using 1 OpenMP thread(s) per MPI task
#########################################################
#							#
#							#
#		Script by K. Sriram			#
#		written on 19/03/2022			#
#########################################################
log			log.nvt_run
